nqpoint: 2      
npath: 1      
segment_nqpoint:
- 2
reciprocal_lattice:
- [   0.31421926,   0.18141458,   0.00000000 ] # a*
- [   0.00000000,   0.36282915,   0.00000000 ] # b*
- [   0.00000000,   0.00000000,   0.04162589 ] # c*
natom: 3      
lattice:
- [     3.182491067853391,     0.000000000000000,     0.000000000000000 ] # a
- [    -1.591245533926696,     2.756118112078102,     0.000000000000000 ] # b
- [     0.000000000000000,     0.000000000000000,    24.023513214742838 ] # c
points:
- symbol: Mo # 1
  coordinates: [  0.333333333333336,  0.666666666666664,  0.500000000000000 ]
  mass: 95.960000
- symbol: S # 2
  coordinates: [  0.666666666666664,  0.333333333333336,  0.435027434897841 ]
  mass: 32.065000
- symbol: S # 3
  coordinates: [  0.666666666666664,  0.333333333333336,  0.564972565102159 ]
  mass: 32.065000

phonon:
- q-position: [    0.0000000,    0.0000000,    0.0000000 ]
  distance:    0.0000000
  band:
  - # 1
    frequency:   -0.0028634259
    eigenvector:
    - # atom 1
      - [  0.76918332617104,  0.00000000000000 ]
      - [  0.08924398850350,  0.00000000000000 ]
      - [ -0.00000000012707,  0.00000000000000 ]
    - # atom 2
      - [  0.44445144388306,  0.00000000000000 ]
      - [  0.05156718586934,  0.00000000000000 ]
      - [ -0.00000000007345,  0.00000000000000 ]
    - # atom 3
      - [  0.44445144388306,  0.00000000000000 ]
      - [  0.05156718586934,  0.00000000000000 ]
      - [ -0.00000000007345,  0.00000000000000 ]
  - # 2
    frequency:   -0.0028634259
    eigenvector:
    - # atom 1
      - [  0.08924398850350,  0.00000000000000 ]
      - [ -0.76918332617104,  0.00000000000000 ]
      - [ -0.00000000003762,  0.00000000000000 ]
    - # atom 2
      - [  0.05156718586934,  0.00000000000000 ]
      - [ -0.44445144388306,  0.00000000000000 ]
      - [ -0.00000000002174,  0.00000000000000 ]
    - # atom 3
      - [  0.05156718586934,  0.00000000000000 ]
      - [ -0.44445144388306,  0.00000000000000 ]
      - [ -0.00000000002174,  0.00000000000000 ]
  - # 3
    frequency:   -0.0007608432
    eigenvector:
    - # atom 1
      - [ -0.00000000013058,  0.00000000000000 ]
      - [  0.00000000002272,  0.00000000000000 ]
      - [ -0.77422007489350,  0.00000000000000 ]
    - # atom 2
      - [ -0.00000000007545,  0.00000000000000 ]
      - [  0.00000000001313,  0.00000000000000 ]
      - [ -0.44753953771254,  0.00000000000000 ]
    - # atom 3
      - [ -0.00000000007545,  0.00000000000000 ]
      - [  0.00000000001313,  0.00000000000000 ]
      - [ -0.44753953771254,  0.00000000000000 ]
  - # 4
    frequency:    8.2855922663
    eigenvector:
    - # atom 1
      - [ -0.00000000000000,  0.00000000000000 ]
      - [  0.00000000000000,  0.00000000000000 ]
      - [  0.00000000000000,  0.00000000000000 ]
    - # atom 2
      - [ -0.42369456522522,  0.00000000000000 ]
      - [ -0.56611210497446,  0.00000000000000 ]
      - [ -0.00000000000000,  0.00000000000000 ]
    - # atom 3
      - [  0.42369456522522,  0.00000000000000 ]
      - [  0.56611210497446,  0.00000000000000 ]
      - [ -0.00000000000000,  0.00000000000000 ]
  - # 5
    frequency:    8.2855922663
    eigenvector:
    - # atom 1
      - [  0.00000000000000,  0.00000000000000 ]
      - [ -0.00000000000000,  0.00000000000000 ]
      - [ -0.00000000000000,  0.00000000000000 ]
    - # atom 2
      - [  0.56611210497446,  0.00000000000000 ]
      - [ -0.42369456522522,  0.00000000000000 ]
      - [ -0.00000000000000,  0.00000000000000 ]
    - # atom 3
      - [ -0.56611210497446,  0.00000000000000 ]
      - [  0.42369456522522,  0.00000000000000 ]
      - [  0.00000000000000,  0.00000000000000 ]
  - # 6
    frequency:   11.1886908697
    eigenvector:
    - # atom 1
      - [  0.07409040597622,  0.00000000000000 ]
      - [ -0.62841318652517,  0.00000000000000 ]
      - [ -0.00000000000000,  0.00000000000000 ]
    - # atom 2
      - [ -0.06411173334060,  0.00000000000000 ]
      - [  0.54377699934794,  0.00000000000000 ]
      - [  0.00000000000000,  0.00000000000000 ]
    - # atom 3
      - [ -0.06411173334060,  0.00000000000000 ]
      - [  0.54377699934794,  0.00000000000000 ]
      - [ -0.00000000000000,  0.00000000000000 ]
  - # 7
    frequency:   11.1886908697
    eigenvector:
    - # atom 1
      - [ -0.62841318652517,  0.00000000000000 ]
      - [ -0.07409040597622,  0.00000000000000 ]
      - [  0.00000000000000,  0.00000000000000 ]
    - # atom 2
      - [  0.54377699934794,  0.00000000000000 ]
      - [  0.06411173334060,  0.00000000000000 ]
      - [  0.00000000000000,  0.00000000000000 ]
    - # atom 3
      - [  0.54377699934794,  0.00000000000000 ]
      - [  0.06411173334060,  0.00000000000000 ]
      - [ -0.00000000000000,  0.00000000000000 ]
  - # 8
    frequency:   11.8975663701
    eigenvector:
    - # atom 1
      - [ -0.00000000000000,  0.00000000000000 ]
      - [  0.00000000000000,  0.00000000000000 ]
      - [ -0.00000000000000,  0.00000000000000 ]
    - # atom 2
      - [  0.00000000000000,  0.00000000000000 ]
      - [ -0.00000000000000,  0.00000000000000 ]
      - [  0.70710678118655,  0.00000000000000 ]
    - # atom 3
      - [ -0.00000000000000,  0.00000000000000 ]
      - [ -0.00000000000000,  0.00000000000000 ]
      - [ -0.70710678118655,  0.00000000000000 ]
  - # 9
    frequency:   13.7200232837
    eigenvector:
    - # atom 1
      - [ -0.00000000000000,  0.00000000000000 ]
      - [  0.00000000000000,  0.00000000000000 ]
      - [ -0.63291648393125,  0.00000000000000 ]
    - # atom 2
      - [ -0.00000000000000,  0.00000000000000 ]
      - [ -0.00000000000000,  0.00000000000000 ]
      - [  0.54745626508795,  0.00000000000000 ]
    - # atom 3
      - [  0.00000000000000,  0.00000000000000 ]
      - [  0.00000000000000,  0.00000000000000 ]
      - [  0.54745626508795,  0.00000000000000 ]

- q-position: [    0.0000000,    0.0000000,    0.0000000 ]
  distance:    0.0000000
  band:
  - # 1
    frequency:   -0.0028634259
    eigenvector:
    - # atom 1
      - [  0.76918332617104,  0.00000000000000 ]
      - [  0.08924398850350,  0.00000000000000 ]
      - [ -0.00000000012707,  0.00000000000000 ]
    - # atom 2
      - [  0.44445144388306,  0.00000000000000 ]
      - [  0.05156718586934,  0.00000000000000 ]
      - [ -0.00000000007345,  0.00000000000000 ]
    - # atom 3
      - [  0.44445144388306,  0.00000000000000 ]
      - [  0.05156718586934,  0.00000000000000 ]
      - [ -0.00000000007345,  0.00000000000000 ]
  - # 2
    frequency:   -0.0028634259
    eigenvector:
    - # atom 1
      - [  0.08924398850350,  0.00000000000000 ]
      - [ -0.76918332617104,  0.00000000000000 ]
      - [ -0.00000000003762,  0.00000000000000 ]
    - # atom 2
      - [  0.05156718586934,  0.00000000000000 ]
      - [ -0.44445144388306,  0.00000000000000 ]
      - [ -0.00000000002174,  0.00000000000000 ]
    - # atom 3
      - [  0.05156718586934,  0.00000000000000 ]
      - [ -0.44445144388306,  0.00000000000000 ]
      - [ -0.00000000002174,  0.00000000000000 ]
  - # 3
    frequency:   -0.0007608432
    eigenvector:
    - # atom 1
      - [ -0.00000000013058,  0.00000000000000 ]
      - [  0.00000000002272,  0.00000000000000 ]
      - [ -0.77422007489350,  0.00000000000000 ]
    - # atom 2
      - [ -0.00000000007545,  0.00000000000000 ]
      - [  0.00000000001313,  0.00000000000000 ]
      - [ -0.44753953771254,  0.00000000000000 ]
    - # atom 3
      - [ -0.00000000007545,  0.00000000000000 ]
      - [  0.00000000001313,  0.00000000000000 ]
      - [ -0.44753953771254,  0.00000000000000 ]
  - # 4
    frequency:    8.2855922663
    eigenvector:
    - # atom 1
      - [ -0.00000000000000,  0.00000000000000 ]
      - [  0.00000000000000,  0.00000000000000 ]
      - [  0.00000000000000,  0.00000000000000 ]
    - # atom 2
      - [ -0.42369456522522,  0.00000000000000 ]
      - [ -0.56611210497446,  0.00000000000000 ]
      - [ -0.00000000000000,  0.00000000000000 ]
    - # atom 3
      - [  0.42369456522522,  0.00000000000000 ]
      - [  0.56611210497446,  0.00000000000000 ]
      - [ -0.00000000000000,  0.00000000000000 ]
  - # 5
    frequency:    8.2855922663
    eigenvector:
    - # atom 1
      - [  0.00000000000000,  0.00000000000000 ]
      - [ -0.00000000000000,  0.00000000000000 ]
      - [ -0.00000000000000,  0.00000000000000 ]
    - # atom 2
      - [  0.56611210497446,  0.00000000000000 ]
      - [ -0.42369456522522,  0.00000000000000 ]
      - [ -0.00000000000000,  0.00000000000000 ]
    - # atom 3
      - [ -0.56611210497446,  0.00000000000000 ]
      - [  0.42369456522522,  0.00000000000000 ]
      - [  0.00000000000000,  0.00000000000000 ]
  - # 6
    frequency:   11.1886908697
    eigenvector:
    - # atom 1
      - [  0.07409040597622,  0.00000000000000 ]
      - [ -0.62841318652517,  0.00000000000000 ]
      - [ -0.00000000000000,  0.00000000000000 ]
    - # atom 2
      - [ -0.06411173334060,  0.00000000000000 ]
      - [  0.54377699934794,  0.00000000000000 ]
      - [  0.00000000000000,  0.00000000000000 ]
    - # atom 3
      - [ -0.06411173334060,  0.00000000000000 ]
      - [  0.54377699934794,  0.00000000000000 ]
      - [ -0.00000000000000,  0.00000000000000 ]
  - # 7
    frequency:   11.1886908697
    eigenvector:
    - # atom 1
      - [ -0.62841318652517,  0.00000000000000 ]
      - [ -0.07409040597622,  0.00000000000000 ]
      - [  0.00000000000000,  0.00000000000000 ]
    - # atom 2
      - [  0.54377699934794,  0.00000000000000 ]
      - [  0.06411173334060,  0.00000000000000 ]
      - [  0.00000000000000,  0.00000000000000 ]
    - # atom 3
      - [  0.54377699934794,  0.00000000000000 ]
      - [  0.06411173334060,  0.00000000000000 ]
      - [ -0.00000000000000,  0.00000000000000 ]
  - # 8
    frequency:   11.8975663701
    eigenvector:
    - # atom 1
      - [ -0.00000000000000,  0.00000000000000 ]
      - [  0.00000000000000,  0.00000000000000 ]
      - [ -0.00000000000000,  0.00000000000000 ]
    - # atom 2
      - [  0.00000000000000,  0.00000000000000 ]
      - [ -0.00000000000000,  0.00000000000000 ]
      - [  0.70710678118655,  0.00000000000000 ]
    - # atom 3
      - [ -0.00000000000000,  0.00000000000000 ]
      - [ -0.00000000000000,  0.00000000000000 ]
      - [ -0.70710678118655,  0.00000000000000 ]
  - # 9
    frequency:   13.7200232837
    eigenvector:
    - # atom 1
      - [ -0.00000000000000,  0.00000000000000 ]
      - [  0.00000000000000,  0.00000000000000 ]
      - [ -0.63291648393125,  0.00000000000000 ]
    - # atom 2
      - [ -0.00000000000000,  0.00000000000000 ]
      - [ -0.00000000000000,  0.00000000000000 ]
      - [  0.54745626508795,  0.00000000000000 ]
    - # atom 3
      - [  0.00000000000000,  0.00000000000000 ]
      - [  0.00000000000000,  0.00000000000000 ]
      - [  0.54745626508795,  0.00000000000000 ]

